data_global
loop_
_publ_author_name
'Rignanese G'
'Charlier J'
_journal_name_full               'Phys Rev B'
_journal_volume                  78
_journal_page_first              125415
_journal_year                    2008
_chemical_name_common            'bct-4 carbon'
_chemical_formula_sum            C
_cell_length_a                   2.500
_cell_length_b                   2.500
_cell_length_c                   8.531
_cell_angle_alpha                90
_cell_angle_beta                 90
_cell_angle_gamma                90
_symmetry_space_group_name_H-M   I41/amd:1
loop_
_atom_site_label
_atom_site_Wyckoff_symbol
_atom_site_fract_x
_atom_site_fract_y
_atom_site_fract_z
C 8e 0 0 .0860
