# C-20 carbon [Rignanese08]
data_nolabel
_journal_paper_doi               10.1103/PhysRevB.78.125415
_cell_length_a                   9.007
_cell_length_b                   9.007
_cell_length_c                   9.007
_cell_angle_alpha                90
_cell_angle_beta                 90
_cell_angle_gamma                90
_symmetry_space_group_name_H-M   Fm-3m
loop_
_atom_site_type_symbol
_atom_site_Wyckoff_symbol
_atom_site_fract_x
_atom_site_fract_y
_atom_site_fract_z
 C  32f  0.1391  0.1391  0.1391
 C  48h   0      0.1976  0.1976
