# M-carbon mC16 derived from AFLOW [Li09]
data_nolabel
_journal_paper_doi  10.1103/PhysRevLett.102.175506
_cell_length_a      9.089
_cell_length_b      2.496
_cell_length_c      4.104
_cell_angle_alpha   90
_cell_angle_beta    96.96
_cell_angle_gamma   90
_symmetry_space_group_name_H-M  C2/m
loop_
_atom_site_type_symbol
_atom_site_Wyckoff_symbol
_atom_site_fract_x
_atom_site_fract_y
_atom_site_fract_z
 C  4i  0.0572  0 -0.1206
 C  4i  0.2142  0  0.0594
 C  4i  0.2715  0  0.4149
 C  4i  0.4419  0  0.3467
