#------------------------------------------------------------------------------
#$Date: 2015-10-14 09:54:24 +0000 (Wed, 14 Oct 2015) $
#$Revision: 168275 $
#$URL: file:///home/coder/svn-repositories/cod/cif/8/10/42/8104287.cif $
#------------------------------------------------------------------------------
#
# This file is available in the Crystallography Open Database (COD),
# http://www.crystallography.net/
#
# All data on this site have been placed in the public domain by the
# contributors.
#
data_8104287
loop_
_publ_author_name
'Trotter, J.'
'Zobel, T.'
_publ_section_title
;
 The Crystal Structure of Sb I3 and Bi I3
;
_journal_name_full
;
Zeitschrift fuer Kristallographie, Kristallgeometrie, Kristallphysik, 
Kristallchemie (-144,1977)
;
_journal_page_first              67
_journal_page_last               72
_journal_volume                  123
_journal_year                    1966
_chemical_formula_sum            'Bi I3'
_chemical_name_systematic        'Bi I3'
_space_group_IT_number           148
_symmetry_space_group_name_Hall  '-R 3'
_symmetry_space_group_name_H-M   'R -3 :H'
_cell_angle_alpha                90
_cell_angle_beta                 90
_cell_angle_gamma                120
_cell_formula_units_Z            6
_cell_length_a                   7.516
_cell_length_b                   7.516
_cell_length_c                   20.718
_cell_volume                     1013.566
_citation_journal_id_ASTM        ZEKGAX
_cod_data_source_file            Trotter_ZEKGAX_1966_1080.cif
_cod_data_source_block           Bi1I3
_cod_chemical_formula_sum_orig   'Bi1 I3'
_cod_database_code               8104287
loop_
_symmetry_equiv_pos_as_xyz
x,y,z
-y,x-y,z
-x+y,-x,z
-x,-y,-z
y,-x+y,-z
x-y,x,-z
x+2/3,y+1/3,z+1/3
-y+2/3,x-y+1/3,z+1/3
-x+y+2/3,-x+1/3,z+1/3
-x+2/3,-y+1/3,-z+1/3
y+2/3,-x+y+1/3,-z+1/3
x-y+2/3,x+1/3,-z+1/3
x+1/3,y+2/3,z+2/3
-y+1/3,x-y+2/3,z+2/3
-x+y+1/3,-x+2/3,z+2/3
-x+1/3,-y+2/3,-z+2/3
y+1/3,-x+y+2/3,-z+2/3
x-y+1/3,x+2/3,-z+2/3
loop_
_atom_site_label
_atom_site_type_symbol
_atom_site_fract_x
_atom_site_fract_y
_atom_site_fract_z
_atom_site_occupancy
_atom_site_U_iso_or_equiv
Bi1 Bi+3 0 0 0.1667 1 0.0
I1 I-1 0.3415 0.3395 0.0805 1 0.0
