# alpha-F (fco of diatomic molecules)
# mC8  15  C2/c=C12/c1  C_2h^6  (unique axis b)
# Original source: American Mineralogist Crystal Structure Database
data_nolabel
loop_
_publ_author_name
'Pauling, L.'
'Keaveny, I.'
'Robinson, A. B.'
_publ_section_title
;
 The crystal structure of alpha-fluorine
 Locality: synthetic
 Sample: stable below 45.6 K
;
_journal_name_full               'Journal of Solid State Chemistry'
_journal_volume                  2
_journal_page_first              225
_journal_year                    1970
_chemical_formula_sum            F2
_chemical_name_mineral           Fluorine
_space_group_IT_number           15
_symmetry_space_group_name_H-M   'C 1 2/c 1'
_cell_angle_alpha                90
_cell_angle_beta                 102.17
_cell_angle_gamma                90
_cell_length_a                   5.50
_cell_length_b                   3.28
_cell_length_c                   7.28
loop_
_symmetry_equiv_pos_as_xyz
x,y,z
1/2+x,1/2+y,z
x,-y,1/2+z
1/2+x,1/2-y,1/2+z
-x,y,1/2-z
1/2-x,1/2+y,1/2-z
-x,-y,-z
1/2-x,1/2-y,-z
loop_
_atom_site_label
_atom_site_fract_x
_atom_site_fract_y
_atom_site_fract_z
_atom_site_Wyckoff_symbol
F  0.2850  0.3170  0.0997  8f
