data_Okudera96
loop_
_publ_author_name
'Okudera, H.'
'Kihara, K.'
'Matsumoto, T.'
_publ_section_title
;
 Temperature dependence of structure parameters in natural magnetite:
 single crystal X-ray studies from 126 to 773 K
;
_journal_name_full               'Acta Crystallographica Section B'
_journal_volume                  52
_journal_page_first              450
_journal_year                    1996
_journal_paper_doi               10.1107/S0108768196000845
_chemical_formula_sum            Fe3O4
_chemical_name_common            magnetite
_symmetry_space_group_name_H-M   Fd-3m
_cell_angle_alpha                90.0
_cell_angle_beta                 90.0
_cell_angle_gamma                90.0
_cell_length_a                   8.3922(3)
_cell_length_b                   8.3922(3)
_cell_length_c                   8.3922(3)
_cell_formula_units_Z            8
_diffrn_radiation_type           Mo
_diffrn_radiation_wavelength     0.71073
loop_
_atom_site_type_symbol
_atom_site_Wyckoff_symbol
_atom_site_fract_x
_atom_site_fract_y
_atom_site_fract_z
Fe (8a)  0.125  0.125  0.125
Fe (16d) 0.5  0.5  0.5
O  (32e) 0.25484(11)  0.25484(11)  0.25484(11)
