data_GeTe
_journal_name_full               J.Chem.Phys.
_journal_page_first              3323
_journal_volume                  44
_journal_year                    1966
loop_
_publ_author_name
'J. Goldak'
'C. S. Barrett'
'D. Innes'
'W. Youdelis'
_publ_section_title              
;
 Structure of alpha GeTe
;
_chemical_formula_sum            GeTe
_symmetry_cell_setting           trigonal
_symmetry_space_group_name_H-M   'R 3 m'
_symmetry_int_tables_number      160
_cell_angle_alpha                57.94
_cell_angle_beta                 57.94
_cell_angle_gamma                57.94
_cell_length_a                   4.174
_cell_length_b                   4.174
_cell_length_c                   4.174
loop_
_symmetry_equiv_pos_as_xyz
z,y,x
z,x,y
x,z,y
y,z,x
y,x,z
x,y,z
loop_
_atom_site_label
_atom_site_fract_x
_atom_site_fract_y
_atom_site_fract_z
Ge -0.237 -0.237 -0.237
Te 0.237 0.237 0.237
