# ferroelectric LiNbO3 at 300K (T_c=1430K)
data_nolabel
loop_
_publ_author_name
'Boysen, H.'
'Altorfer, F.'
_publ_section_title
;
 A neutron powder investigation of the high-temperature structure and
 phase transition in LiNbO3
;
_journal_name_full               'Acta Crystallographica Section B'
_journal_volume                  50
_journal_page_first              405
_journal_year                    1994
_journal_paper_doi               10.1107/S0108768193012820
_chemical_formula_sum            'LiNbO3'
_symmetry_space_group_name_H-M   'R3c'
_cell_angle_alpha                90
_cell_angle_beta                 90
_cell_angle_gamma                120
_cell_length_a                   5.1513(8)
_cell_length_b                   5.1513(8)
_cell_length_c                   13.8654(8)
_cell_formula_units_Z            6
_diffrn_ambient_temperature      300
loop_
_atom_site_label
_atom_site_fract_x
_atom_site_fract_y
_atom_site_fract_z
_atom_site_Wyckoff_symbol
Li   0         0        .3021(9)  6a
Nb   0         0        .0192(3)  6a
O   .0478(4)  .3428(7)  .0833333  18b

# Paralectrics phase is
#Li   0         0        1/4
#Nb   0         0         0
#O   .0602     1/3       1/12
