#------------------------------------------------------------------------------
#$Date: 2014-07-12 08:06:43 +0000 (Sat, 12 Jul 2014) $
#$Revision: 120115 $
#$URL: file:///home/coder/svn-repositories/cod/cif/9/01/24/9012476.cif $
#------------------------------------------------------------------------------
#
# This file is available in the Crystallography Open Database (COD),
# http://www.crystallography.net/. The original data for this entry
# were provided the American Mineralogist Crystal Structure Database,
# http://rruff.geo.arizona.edu/AMS/amcsd.php
#
# The file may be used within the scientific community so long as
# proper attribution is given to the journal article from which the
# data were obtained.
#
data_9012476
loop_
_publ_author_name
'Schuch, A. F.'
'Mills, R. L.'
_publ_section_title
;
 Crystal structures of the three modifications of nitrogen 14 and
 nitrogen 15 at high pressure
 Locality: synthetic
 Sample: at T = 46 K
 Note: beta phase
;
_journal_name_full               'Journal of Chemical Physics'
_journal_page_first              6000
_journal_page_last               6008
_journal_volume                  52
_journal_year                    1970
_chemical_formula_sum            N2
_chemical_name_common            Nitrogen
_space_group_IT_number           194
_symmetry_space_group_name_Hall  '-P 6c 2c'
_symmetry_space_group_name_H-M   'P 63/m m c'
_cell_angle_alpha                90
_cell_angle_beta                 90
_cell_angle_gamma                120
_cell_length_a                   4.050
_cell_length_b                   4.050
_cell_length_c                   6.604
_cell_volume                     93.810
_diffrn_ambient_temperature      46
_exptl_crystal_density_diffrn    0.992
_cod_database_code               9012476
loop_
_symmetry_equiv_pos_as_xyz
x,y,z
-x,-x+y,1/2+z
x,x-y,1/2-z
-x+y,-x,1/2-z
x-y,x,1/2+z
-y,-x,z
y,x,-z
y,-x+y,-z
-y,x-y,z
x-y,-y,1/2+z
-x+y,y,1/2-z
x,y,1/2-z
-x,-y,1/2+z
x,x-y,z
-x,-x+y,-z
x-y,x,-z
-x+y,-x,z
y,x,1/2+z
-y,-x,1/2-z
-y,x-y,1/2-z
y,-x+y,1/2+z
-x+y,y,z
x-y,-y,-z
-x,-y,-z
loop_
_atom_site_label
_atom_site_fract_x
_atom_site_fract_y
_atom_site_fract_z
_atom_site_U_iso_or_equiv
N 0.33333 0.66667 0.33800 0.01773
_journal_paper_doi 10.1063/1.1672899
