#------------------------------------------------------------------------------
#$Date: 2014-07-12 04:06:18 +0000 (Sat, 12 Jul 2014) $
#$Revision: 120112 $
#$URL: file:///home/coder/svn-repositories/cod/cif/7/20/48/7204814.cif $
#------------------------------------------------------------------------------
#
# This file is available in the Crystallography Open Database (COD),
# http://www.crystallography.net/
#
# All data on this site have been placed in the public domain by the
# contributors.
#
data_7204814
loop_
_publ_author_name
'Carmalt, Claire J.'
'Manning, Troy D.'
'Parkin, Ivan P.'
'Peters, Emily S.'
'Hector, Andrew L.'
_publ_section_title
;
 Formation of a new (1T) trigonal NbS2 polytype via atmospheric
 pressure chemical vapour depositionElectronic supplementary
 information (ESI) available: structure refinements of the NbS2 films
 and crystallographic data in CIF format. See
 http://www.rsc.org/suppdata/jm/b3/b315782m/
;
_journal_issue                   3
_journal_name_full               'Journal of Materials Chemistry'
_journal_page_first              290
_journal_volume                  14
_journal_year                    2004
_chemical_formula_moiety         'Nb S2'
_chemical_formula_structural     'Nb S2'
_chemical_formula_sum            'Nb S2'
_chemical_formula_weight         157.03
_chemical_name_common            '1T niobium disulfide'
_chemical_name_systematic        'niobium disulfide'
_space_group_IT_number           164
_symmetry_cell_setting           trigonal
_symmetry_space_group_name_Hall  '-P 3 2"'
_symmetry_space_group_name_H-M   'P -3 m 1'
_audit_creation_date             2003-08-22T13:48
_audit_creation_method           'from EXP file using GSAS2CIF'
_audit_update_record
' 2003-08-22T13:48  Initial CIF as created by GSAS2CIF'
_cell_angle_alpha                90.0
_cell_angle_beta                 90.0
_cell_angle_gamma                120.0
_cell_formula_units_Z            1
_cell_length_a                   3.420(6)
_cell_length_b                   3.42
_cell_length_c                   5.938(11)
_cell_measurement_temperature    293
_cell_volume                     60.15(15)
_computing_data_collection       PINCER
_computing_structure_refinement
; GSAS General Structure Analysis System, Larson, A C and Von Dreele, R B,
Neutron Scattering Centre, MS-H805, Los Alamos National Laboratory, Los Alamos,
NM (2001).
;
_diffrn_ambient_temperature      293
_diffrn_detector                 'scintillation counter'
_diffrn_detector_type
; Enhanced Dynamic Range scintillation counter (Cockerton and Tanner, 
Adv. X-ray Anal, 1995, 38, 371)
;
_diffrn_measurement_device_type
' Daresury built stage (Tang et al, J Synchrotron Rad, 1998, 69, 1224)'
_diffrn_radiation_polarisn_ratio 0.95
_diffrn_radiation_probe          x-ray
_diffrn_radiation_type           synchrotron
_diffrn_radiation_wavelength     1.2982
_diffrn_source                   synchrotron
_diffrn_source_type              'SRS beamline 2.3'
_exptl_absorpt_correction_T_max  1.00000
_exptl_absorpt_correction_T_min  1.00000
_exptl_absorpt_process_details
;   GSAS Absorption/surface roughness correction: function number 1
 Linear absorption correction
Term =      0.0000    
Correction is not refined.
;
_pd_block_id                     2003-08-22T13:48|1TTRIG||
_pd_calc_method                  'Rietveld Refinement'
_pd_instr_location
' UK Synchrotron Radiation Source, Daresbury Laboratory, Cheshire'
_pd_meas_2theta_range_inc        0.05
_pd_meas_2theta_range_max        69.95
_pd_meas_2theta_range_min        10.0
_pd_meas_number_of_points        1200
_pd_meas_scan_method             step
_pd_phase_name                   'NbS2 hexagonal P-3m1'
_pd_prep_pressure                100
_pd_prep_temperature             893
_pd_proc_2theta_range_inc        0.05
_pd_proc_2theta_range_max        69.9413
_pd_proc_2theta_range_min        9.9913
_pd_proc_info_data_reduction
; data contained a large glass background and was corrected by subtracting a
heavily smoothed and normalised glass dataset collected in the same
configuration
;
_pd_proc_info_datetime           2003-08-22T13:48:13
_pd_proc_ls_background_function
;   GSAS Background function number 2 with  6 terms.
 Cosine Fourier series
      1:   -4541.44     2:    8641.89     3:   -5779.38     4:    3008.45    
      5:   -1164.90     6:    261.372    
;
_pd_proc_ls_peak_cutoff          0.00100
_pd_proc_ls_pref_orient_corr
;   March-Dollase
 AXIS  1 Ratio=   1.27329  h= 0.000  k= 0.000  l= 1.000
 Prefered orientation correction range: Min=   0.48441, Max=   1.43679
;
_pd_proc_ls_profile_function
;
 CW Profile function number 2 with  18 terms
 Profile coefficients for Simpson's rule integration of pseudovoigt function
 C.J. Howard (1982). J. Appl. Cryst.,15,615-620.
 P. Thompson, D.E. Cox & J.B. Hastings (1987). J. Appl. Cryst.,20,79-83.
 Peak tails are ignored  where the intensity is below 0.0010 times the peak
   Aniso. broadening axis   0.0   0.0   1.0
;
_pd_proc_ls_prof_R_factor        0.0520
_pd_proc_ls_prof_wR_expected     0.0477
_pd_proc_ls_prof_wR_factor       0.0652
_pd_proc_number_of_points        1200
_pd_spec_mounting                'thin film on glass substrate'
_pd_spec_mount_mode              reflection
_pd_spec_shape                   flat_sheet
_pd_spec_size_axial              'effectively infinite'
_pd_spec_size_thick              0.016
_refine_ls_goodness_of_fit_all   1.38
_refine_ls_matrix_type           full
_refine_ls_number_parameters     15
_refine_ls_number_restraints     0
_refine_ls_R_Fsqd_factor         0.36152
_refine_ls_shift/su_max          0.07
_refine_ls_shift/su_mean         0.01
_reflns_d_resolution_high        1.186
_reflns_d_resolution_low         5.938
_reflns_limit_h_max              2
_reflns_limit_h_min              0
_reflns_limit_k_max              1
_reflns_limit_k_min              0
_reflns_limit_l_max              5
_reflns_limit_l_min              -5
_reflns_number_observed          25
_[local]_cod_data_source_file    b315782m.txt
_[local]_cod_data_source_block   1TTRIG_publ
_[local]_cod_cif_authors_sg_Hall 'P -3 m 1'
_cod_depositor_comments
;
The following automatic conversions were performed:
'_geom_angle_publ_flag' value 'N' changed to 'n' according to
'/home/saulius/struct/CIF-dictionaries/cif_core.dic' dictionary named
'cif_core.dic' version 2.4.1 from 2010-06-29 (18
times).

'_geom_bond_publ_flag' value 'N' changed to 'n' according to
'/home/saulius/struct/CIF-dictionaries/cif_core.dic' dictionary named
'cif_core.dic' version 2.4.1 from 2010-06-29 (9 times).

Automatic conversion script
Id: cif_fix_enum 1527 2010-12-29 10:47:43Z saulius 
;
_cod_original_cell_volume        60.15967
_cod_database_code               7204814
#BEGIN Tags that were not found in dictionaries:
_gsas_exptl_extinct_corr_t_min   1.00000
_gsas_exptl_extinct_corr_t_max   1.00000
#END Tags that were not found in dictionaries
loop_
_symmetry_equiv_pos_site_id
_symmetry_equiv_pos_as_xyz
1 +x,+y,+z
2 -y,x-y,+z
3 y-x,-x,+z
4 y-x,+y,+z
5 -y,-x,+z
6 +x,x-y,+z
-1 -x,-y,-z
-2 +y,y-x,-z
-3 x-y,+x,-z
-4 x-y,-y,-z
-5 +y,+x,-z
-6 -x,y-x,-z
loop_
_atom_site_type_symbol
_atom_site_label
_atom_site_fract_x
_atom_site_fract_y
_atom_site_fract_z
_atom_site_occupancy
_atom_site_thermal_displace_type
_atom_site_U_iso_or_equiv
_atom_site_symmetry_multiplicity
NB Nb1 0.0 0.0 0.0 1.0 Uiso 0.035(4) 1
S S2 0.33333 0.66667 0.2491(29) 1.0 Uiso 0.016(6) 2
loop_
_atom_type_symbol
_atom_type_number_in_cell
_atom_type_scat_dispersion_real
_atom_type_scat_dispersion_imag
_atom_type_scat_Cromer_Mann_a1
_atom_type_scat_Cromer_Mann_a2
_atom_type_scat_Cromer_Mann_a3
_atom_type_scat_Cromer_Mann_a4
_atom_type_scat_Cromer_Mann_b1
_atom_type_scat_Cromer_Mann_b2
_atom_type_scat_Cromer_Mann_b3
_atom_type_scat_Cromer_Mann_b4
_atom_type_scat_Cromer_Mann_c
_atom_type_scat_source
NB 1.0 -0.248 2.482 17.6142 1.18865 12.0144 11.7660 4.04183 0.20479 3.53346
69.7957 3.75591 International_Tables_Vol_C
S 2.0 0.319 0.557 6.90530 1.46790 5.20340 22.2151 1.43790 0.25360 1.58630
56.1720 0.86690 International_Tables_Vol_C
loop_
_geom_angle_atom_site_label_1
_geom_angle_atom_site_label_2
_geom_angle_atom_site_label_3
_geom_angle
_geom_angle_site_symmetry_1
_geom_angle_site_symmetry_2
_geom_angle_site_symmetry_3
_geom_angle_publ_flag
S2 Nb1 S2 87.8(5) 1_445 . 1_545 n
S2 Nb1 S2 87.8(5) 1_445 . 1_555 n
S2 Nb1 S2 92.2(5) 1_445 . -1_555 n
S2 Nb1 S2 92.2(5) 1_445 . -1_565 n
S2 Nb1 S2 179.9604 1_445 . -1_665 n
S2 Nb1 S2 87.8(5) 1_545 . 1_555 n
S2 Nb1 S2 92.2(5) 1_545 . -1_555 n
S2 Nb1 S2 179.9604 1_545 . -1_565 n
S2 Nb1 S2 92.2(5) 1_545 . -1_665 n
S2 Nb1 S2 179.9657 1_555 . -1_555 n
S2 Nb1 S2 92.2(5) 1_555 . -1_565 n
S2 Nb1 S2 92.2(5) 1_555 . -1_665 n
S2 Nb1 S2 87.8(5) -1_555 . -1_565 n
S2 Nb1 S2 87.8(5) -1_555 . -1_665 n
S2 Nb1 S2 87.8(5) -1_565 . -1_665 n
Nb1 S2 Nb1 87.8(5) 1_555 . 1_565 n
Nb1 S2 Nb1 87.8(5) 1_555 . 1_665 n
Nb1 S2 Nb1 87.8(5) 1_565 . 1_665 n
loop_
_geom_bond_atom_site_label_1
_geom_bond_atom_site_label_2
_geom_bond_distance
_geom_bond_site_symmetry_1
_geom_bond_site_symmetry_2
_geom_bond_publ_flag
Nb1 S2 2.467(11) . 1_445 n
Nb1 S2 2.467(11) . 1_545 n
Nb1 S2 2.467(11) . 1_555 n
Nb1 S2 2.467(11) . -1_555 n
Nb1 S2 2.467(11) . -1_565 n
Nb1 S2 2.467(11) . -1_665 n
S2 Nb1 2.467(11) . 1_555 n
S2 Nb1 2.467(11) . 1_565 n
S2 Nb1 2.467(11) . 1_665 n
loop_
_pd_meas_counts_total
_pd_proc_ls_weight
_pd_proc_intensity_bkg_calc
_pd_calc_intensity_total
403.0 0.0 419.35464 .
433.0 0.002309 419.29742 421.64706
413.0 0.002421 419.23950 421.67651
388.0 0.002577 419.18204 421.71176
423.0 0.002364 419.12347 421.75119
393.0 0.002545 419.06531 421.79660
383.0 0.002611 419.00751 421.84879
425.0 0.002353 418.94952 421.90741
396.0 0.002525 418.89066 421.97256
401.0 0.002494 418.83240 422.04605
424.0 0.002358 418.77374 422.12778
437.0 0.002288 418.71478 422.21860
385.0 0.002597 418.65604 422.31970
373.0 0.002681 418.59708 422.43185
414.0 0.002415 418.53809 422.55609
392.0 0.002551 418.47919 422.69388
408.0 0.002451 418.41977 422.84549
422.0 0.002370 418.36069 423.01395
423.0 0.002364 418.30118 423.19980
409.0 0.002445 418.24225 423.40591
425.0 0.002353 418.18216 423.63269
422.0 0.002370 418.12265 423.88489
449.0 0.002227 418.06308 424.16406
437.0 0.002288 418.00385 424.47406
405.0 0.002469 417.94397 424.81766
442.0 0.002262 417.88440 425.20035
436.0 0.002294 417.82407 425.62643
437.0 0.002288 417.76422 426.10199
402.0 0.002488 417.70422 426.63461
424.0 0.002358 417.64377 427.23135
450.0 0.002222 417.58359 427.90289
480.0 0.002083 417.52344 428.66101
444.0 0.002252 417.46365 429.51944
479.0 0.002088 417.40323 430.49451
440.0 0.002273 417.34311 431.60745
443.0 0.002257 417.28241 432.88278
459.0 0.002179 417.22253 434.35312
460.0 0.002174 417.16150 436.05499
463.0 0.002160 417.10162 438.04047
484.0 0.002066 417.04065 440.36905
487.0 0.002053 416.98087 443.12314
519.0 0.001927 416.91946 446.40521
496.0 0.002016 416.85941 450.35678
501.0 0.001996 416.79819 455.16473
524.0 0.001908 416.73810 461.09396
551.0 0.001815 416.67722 468.52142
561.0 0.001783 416.61679 478.00540
586.0 0.001706 416.55573 490.37274
593.0 0.001686 416.49551 506.84341
638.0 0.001567 416.43506 529.15118
669.0 0.001495 416.37396 559.63647
698.0 0.001433 416.31360 601.20642
686.0 0.001458 416.25250 656.89935
709.0 0.001410 416.19208 728.32062
764.0 0.001309 416.13171 811.32129
833.0 0.001200 416.07089 888.43701
810.0 0.001235 416.00986 927.68829
861.0 0.001161 415.94919 906.14777
875.0 0.001143 415.88852 836.91956
733.0 0.001364 415.82831 752.93701
730.0 0.001370 415.76743 676.90491
656.0 0.001524 415.70673 616.23962
634.0 0.001577 415.64648 570.47821
547.0 0.001828 415.58612 536.76782
560.0 0.001786 415.52573 512.08435
461.0 0.002169 415.46524 493.89688
472.0 0.002119 415.40439 480.28815
517.0 0.001934 415.34439 469.89435
489.0 0.002045 415.28415 461.77881
465.0 0.002151 415.22363 455.31161
441.0 0.002268 415.16330 450.06778
461.0 0.002169 415.10339 445.75345
444.0 0.002252 415.04288 442.15930
435.0 0.002299 414.98315 439.13397
406.0 0.002463 414.92239 436.56189
428.0 0.002336 414.86322 434.35825
424.0 0.002358 414.80307 432.45340
385.0 0.002597 414.74280 430.79538
424.0 0.002358 414.68335 429.34354
423.0 0.002364 414.62363 428.06317
376.0 0.002660 414.56369 426.92758
414.0 0.002415 414.50415 425.91541
423.0 0.002364 414.44458 425.00833
373.0 0.002681 414.38486 424.19128
372.0 0.002688 414.32568 423.45279
410.0 0.002439 414.26599 422.78159
402.0 0.002488 414.20706 422.17029
373.0 0.002681 414.14813 421.61047
390.0 0.002564 414.08911 421.09628
371.0 0.002695 414.03006 420.62204
394.0 0.002538 413.97107 420.18375
393.0 0.002545 413.91248 419.77719
415.0 0.002410 413.85385 419.39908
462.0 0.002165 413.79507 419.04599
385.0 0.002597 413.73688 418.71616
407.0 0.002457 413.67831 418.40634
394.0 0.002538 413.62006 418.11554
397.0 0.002519 413.56198 417.84128
390.0 0.002564 413.50378 417.58206
414.0 0.002415 413.44568 417.33679
418.0 0.002392 413.38803 417.10440
406.0 0.002463 413.33057 416.88370
393.0 0.002545 413.27280 416.67316
402.0 0.002488 413.21542 416.47269
422.0 0.002370 413.15796 416.28073
410.0 0.002439 413.10046 416.09708
404.0 0.002475 413.04349 415.92123
403.0 0.002481 412.98694 415.75278
394.0 0.002538 412.93005 415.59027
415.0 0.002410 412.87360 415.43417
419.0 0.002387 412.81644 415.28293
376.0 0.002660 412.75998 415.13724
411.0 0.002433 412.70386 414.99667
346.0 0.002890 412.64792 414.86078
413.0 0.002421 412.59183 414.72864
449.0 0.002227 412.53607 414.60086
392.0 0.002551 412.48032 414.47656
402.0 0.002488 412.42538 414.35635
435.0 0.002299 412.37015 414.23907
396.0 0.002525 412.31516 414.12488
413.0 0.002421 412.25970 414.01282
390.0 0.002564 412.20441 413.90372
423.0 0.002364 412.15012 413.79794
403.0 0.002481 412.09537 413.69418
418.0 0.002392 412.04132 413.59320
368.0 0.002717 411.98730 413.49408
382.0 0.002618 411.93304 413.39691
409.0 0.002445 411.87912 413.30154
379.0 0.002639 411.82565 413.20847
403.0 0.002481 411.77206 413.11700
373.0 0.002681 411.71902 413.02765
404.0 0.002475 411.66608 412.93967
469.0 0.002132 411.61270 412.85272
403.0 0.002481 411.56027 412.76794
466.0 0.002146 411.50772 412.68433
412.0 0.002427 411.45551 412.60223
420.0 0.002381 411.40344 412.52130
421.0 0.002375 411.35120 412.44144
420.0 0.002381 411.29950 412.36298
425.0 0.002353 411.24832 412.28610
406.0 0.002463 411.19690 412.20975
421.0 0.002375 411.14603 412.13498
424.0 0.002358 411.09506 412.06088
403.0 0.002481 411.04419 411.98761
390.0 0.002564 410.99365 411.91541
393.0 0.002545 410.94373 411.84467
342.0 0.002924 410.89362 411.77435
392.0 0.002551 410.84375 411.70499
404.0 0.002475 410.79407 411.63638
403.0 0.002481 410.74503 411.56918
426.0 0.002347 410.69553 411.50195
418.0 0.002392 410.64694 411.43619
355.0 0.002817 410.59839 411.37100
391.0 0.002558 410.54980 411.30646
393.0 0.002545 410.50131 411.24228
336.0 0.002976 410.45349 411.17926
489.0 0.002045 410.40640 411.11752
387.0 0.002584 410.35843 411.05536
422.0 0.002370 410.31149 410.99463
418.0 0.002392 410.26468 410.93430
436.0 0.002294 410.21786 410.87442
365.0 0.002740 410.17105 410.81491
362.0 0.002762 410.12506 410.75662
407.0 0.002457 410.07892 410.69858
419.0 0.002387 410.03308 410.64105
400.0 0.002500 409.98764 410.58432
412.0 0.002427 409.94220 410.52789
440.0 0.002273 409.89743 410.47235
333.0 0.003003 409.85324 410.41766
377.0 0.002653 409.80847 410.36282
410.0 0.002439 409.76453 410.30899
376.0 0.002660 409.72055 410.25543
361.0 0.002770 409.67691 410.20230
410.0 0.002439 409.63333 410.14957
357.0 0.002801 409.59067 410.09805
384.0 0.002604 409.54788 410.04660
398.0 0.002513 409.50507 409.99530
376.0 0.002660 409.46310 409.94507
452.0 0.002212 409.42081 409.89471
380.0 0.002632 409.37961 409.84564
441.0 0.002268 409.33780 409.79617
377.0 0.002653 409.29709 409.74789
383.0 0.002611 409.25626 409.69983
362.0 0.002762 409.21570 409.20334
481.0 0.002079 409.17551 409.16321
447.0 0.002237 409.13544 409.12311
394.0 0.002538 409.09619 409.08389
463.0 0.002160 409.05667 409.04440
453.0 0.002208 409.01752 409.00989
320.0 0.003125 408.97916 409.24377
434.0 0.002304 408.94049 409.20959
407.0 0.002457 408.90244 409.17596
360.0 0.002778 408.86429 409.14249
402.0 0.002488 408.82700 409.10989
468.0 0.002137 408.79022 409.07800
412.0 0.002427 408.75320 409.04593
422.0 0.002370 408.71667 409.01450
416.0 0.002404 408.68036 408.98343
462.0 0.002165 408.64450 408.95297
399.0 0.002506 408.60870 408.92273
418.0 0.002392 408.57361 408.89328
453.0 0.002208 408.53873 408.86414
454.0 0.002203 408.50385 408.83517
459.0 0.002179 408.46979 408.80725
389.0 0.002571 408.43579 408.77957
346.0 0.002890 408.40216 408.75232
444.0 0.002252 408.36850 408.72534
467.0 0.002141 408.33578 408.69934
419.0 0.002387 408.30267 408.67319
358.0 0.002793 408.27045 408.64822
431.0 0.002320 408.23874 408.62378
415.0 0.002410 408.20688 408.59946
461.0 0.002169 408.17569 408.57617
397.0 0.002519 408.14465 408.55322
419.0 0.002387 408.11389 408.53064
411.0 0.002433 408.08337 408.50861
399.0 0.002506 408.05365 408.48770
419.0 0.002387 408.02380 408.46689
408.0 0.002451 407.99463 408.44702
476.0 0.002101 407.96585 408.42786
437.0 0.002288 407.93707 408.40894
426.0 0.002347 407.90936 408.39139
414.0 0.002415 407.88080 408.37354
452.0 0.002212 407.85355 408.35712
398.0 0.002513 407.82645 408.34119
434.0 0.002304 407.79959 408.32593
389.0 0.002571 407.77310 408.31140
419.0 0.002387 407.74698 408.29770
390.0 0.002564 407.72131 408.28488
445.0 0.002247 407.69565 408.27240
447.0 0.002237 407.67108 408.26163
391.0 0.002558 407.64633 408.25104
434.0 0.002304 407.62186 408.24127
431.0 0.002320 407.59781 408.23245
424.0 0.002358 407.57425 408.22470
483.0 0.002070 407.55124 408.21805
461.0 0.002169 407.52814 408.21194
410.0 0.002439 407.50565 408.20709
429.0 0.002331 407.48361 408.20334
449.0 0.002227 407.46176 409.13968
442.0 0.002262 407.44067 409.15204
436.0 0.002294 407.41962 409.16550
455.0 0.002198 407.39893 409.18051
449.0 0.002227 407.37875 409.19708
418.0 0.002392 407.35886 409.21533
406.0 0.002463 407.33936 409.23526
448.0 0.002232 407.32016 409.25690
433.0 0.002309 407.30167 409.28073
377.0 0.002653 407.28320 409.30597
388.0 0.002577 407.26495 409.33307
400.0 0.002500 407.24734 409.36249
447.0 0.002237 407.23059 409.39459
428.0 0.002336 407.21347 409.42831
468.0 0.002137 407.19714 409.46466
411.0 0.002433 407.18091 409.50333
421.0 0.002375 407.16544 409.54489
402.0 0.002488 407.15002 409.58893
463.0 0.002160 407.13519 409.63611
430.0 0.002326 407.12094 409.68634
441.0 0.002268 407.10599 409.73889
413.0 0.002421 407.09277 409.79614
413.0 0.002421 407.07907 409.85611
439.0 0.002278 407.06641 409.92041
433.0 0.002309 407.05396 409.98871
430.0 0.002326 407.04138 410.06076
390.0 0.002564 407.03033 410.13846
435.0 0.002299 407.01834 410.21979
408.0 0.002451 407.00696 410.30646
413.0 0.002421 406.99713 410.39999
465.0 0.002151 406.98657 410.49832
392.0 0.002551 406.97687 410.60358
405.0 0.002469 406.96765 410.71585
389.0 0.002571 406.95831 410.83511
422.0 0.002370 406.94955 410.96255
388.0 0.002577 406.94128 411.09888
419.0 0.002387 406.93341 411.24472
456.0 0.002193 406.92636 411.40149
438.0 0.002283 406.91937 411.56903
410.0 0.002439 406.91257 411.74890
375.0 0.002667 406.90656 411.94266
414.0 0.002415 406.90018 412.15070
478.0 0.002092 406.89539 412.37643
364.0 0.002747 406.88977 412.61923
417.0 0.002398 406.88531 412.88306
411.0 0.002433 406.88083 413.16922
408.0 0.002451 406.87741 413.48132
447.0 0.002237 406.87448 413.82211
437.0 0.002288 406.87100 414.19397
405.0 0.002469 406.86856 414.60297
458.0 0.002183 406.86569 415.05255
426.0 0.002347 406.86426 415.55060
375.0 0.002667 406.86334 416.10306
395.0 0.002532 406.86176 416.71735
453.0 0.002208 406.86124 417.40521
407.0 0.002457 406.86108 418.17844
441.0 0.002268 406.86108 419.05179
407.0 0.002457 406.86197 420.04449
371.0 0.002695 406.86264 421.17844
370.0 0.002703 406.86432 422.48370
450.0 0.002222 406.86578 423.99612
420.0 0.002381 406.86832 425.76440
442.0 0.002262 406.87112 427.85123
403.0 0.002481 406.87350 430.34335
417.0 0.002398 406.87735 433.36707
472.0 0.002119 406.88092 437.10330
431.0 0.002320 406.88522 441.82520
374.0 0.002674 406.89014 447.93494
481.0 0.002079 406.89502 456.00781
454.0 0.002203 406.90054 466.82578
457.0 0.002188 406.90601 481.37372
495.0 0.002020 406.91257 500.77963
456.0 0.002193 406.91983 526.14502
482.0 0.002075 406.92648 558.17358
535.0 0.001869 406.93408 596.34674
644.0 0.001553 406.94196 637.28107
763.0 0.001311 406.95001 672.74646
807.0 0.001239 406.95920 690.64337
780.0 0.001282 406.96783 682.83844
588.0 0.001701 406.97739 653.12561
516.0 0.001938 406.98691 613.33258
527.0 0.001898 406.99747 573.73273
503.0 0.001988 407.00824 539.43671
485.0 0.002062 407.01950 511.83502
476.0 0.002101 407.03073 490.55850
511.0 0.001957 407.04230 474.59705
490.0 0.002041 407.05511 462.80603
514.0 0.001946 407.06821 454.13251
481.0 0.002079 407.08078 447.71207
486.0 0.002058 407.09457 442.89401
495.0 0.002020 407.10803 439.21301
447.0 0.002237 407.12213 436.35382
491.0 0.002037 407.13742 434.10526
477.0 0.002096 407.15237 432.32376
469.0 0.002132 407.16815 430.91272
409.0 0.002445 407.18353 429.80167
427.0 0.002342 407.20016 428.94150
479.0 0.002088 407.21677 428.29330
472.0 0.002119 407.23337 427.82846
472.0 0.002119 407.25122 427.52655
488.0 0.002049 407.26883 427.36981
484.0 0.002066 407.28705 427.34729
492.0 0.002033 407.30627 427.45084
442.0 0.002262 407.32452 427.67322
482.0 0.002075 407.34421 428.01419
433.0 0.002309 407.36380 428.47174
435.0 0.002299 407.38440 429.04916
522.0 0.001916 407.40469 429.74908
495.0 0.002020 407.42590 430.57950
479.0 0.002088 407.44720 431.54840
426.0 0.002347 407.46844 432.66727
466.0 0.002146 407.49045 433.95172
456.0 0.002193 407.51337 435.42001
512.0 0.001953 407.53607 437.09335
497.0 0.002012 407.55930 438.99976
455.0 0.002198 407.58273 441.17221
475.0 0.002105 407.60712 443.65213
420.0 0.002381 407.63159 446.48849
482.0 0.002075 407.65613 449.74286
500.0 0.002000 407.68127 453.49176
434.0 0.002304 407.70660 457.83023
523.0 0.001912 407.73312 462.87994
405.0 0.002469 407.75885 468.79422
477.0 0.002096 407.78561 475.78006
510.0 0.001961 407.81256 484.11569
539.0 0.001855 407.83987 494.19559
483.0 0.002070 407.86792 506.59518
483.0 0.002070 407.89618 522.16827
523.0 0.001912 407.92447 542.18152
530.0 0.001887 407.95334 568.46582
565.0 0.001770 407.98248 603.54474
655.0 0.001527 408.01239 650.67517
620.0 0.001613 408.04221 713.70959
725.0 0.001379 408.07202 796.69000
857.0 0.001167 408.10300 902.99768
953.0 0.001049 408.13382 1033.61707
1215.0 0.000823 408.16510 1183.55188
1330.0 0.000752 408.19751 1335.60181
1617.0 0.000618 408.22922 1455.21399
1587.0 0.000630 408.26199 1499.91113
1560.0 0.000641 408.29440 1449.87732
1355.0 0.000738 408.32773 1327.14075
1187.0 0.000842 408.36081 1174.42053
967.0 0.001034 408.39465 1025.28589
861.0 0.001161 408.42877 896.02484
728.0 0.001374 408.46338 791.13483
647.0 0.001546 408.49854 709.41467
617.0 0.001621 408.53387 647.40887
587.0 0.001704 408.56909 601.06818
569.0 0.001757 408.60492 566.56659
502.0 0.001992 408.64072 540.68811
511.0 0.001957 408.67804 520.95300
548.0 0.001825 408.71515 505.56607
490.0 0.002041 408.75156 493.28790
473.0 0.002114 408.78952 483.28564
502.0 0.001992 408.82672 474.99451
461.0 0.002169 408.86551 468.03030
447.0 0.002237 408.90448 462.55902
449.0 0.002227 408.94278 457.50021
431.0 0.002320 408.98187 453.13733
434.0 0.002304 409.02118 449.34991
438.0 0.002283 409.06134 446.04391
449.0 0.002227 409.10135 443.14188
436.0 0.002294 409.14163 440.58240
414.0 0.002415 409.18250 438.31552
453.0 0.002208 409.22354 436.29901
411.0 0.002433 409.26505 434.49869
399.0 0.002506 409.30676 432.88544
426.0 0.002347 409.34821 431.43466
445.0 0.002247 409.39087 430.12744
431.0 0.002320 409.43338 428.94510
424.0 0.002358 409.47641 427.87332
374.0 0.002674 409.51953 426.89929
440.0 0.002273 409.56299 426.01215
412.0 0.002427 409.60690 425.20276
444.0 0.002252 409.65042 424.46204
437.0 0.002288 409.69498 423.78421
473.0 0.002114 409.74005 423.16269
432.0 0.002315 409.78442 422.59070
390.0 0.002564 409.82965 422.06503
423.0 0.002364 409.87497 421.58066
428.0 0.002336 409.92090 421.13434
432.0 0.002315 409.96738 420.72269
439.0 0.002278 410.01315 420.34158
451.0 0.002217 410.06006 419.99005
423.0 0.002364 410.10657 419.66440
426.0 0.002347 410.15372 419.36328
451.0 0.002217 410.20166 419.08524
399.0 0.002506 410.24884 418.82681
409.0 0.002445 410.29666 418.58795
424.0 0.002358 410.34503 418.36707
391.0 0.002558 410.39307 418.17938
443.0 0.002257 410.44199 417.99060
432.0 0.002315 410.49078 417.81583
467.0 0.002141 410.54031 417.65475
452.0 0.002212 410.58932 417.50555
408.0 0.002451 410.63910 417.36856
430.0 0.002326 410.68884 417.24219
408.0 0.002451 410.73907 417.12640
391.0 0.002558 410.78925 417.02008
440.0 0.002273 410.83975 416.92300
433.0 0.002309 410.89078 416.83493
409.0 0.002445 410.94177 416.75476
428.0 0.002336 410.99326 416.67798
405.0 0.002469 411.04480 416.61325
425.0 0.002353 411.09607 416.55499
455.0 0.002198 411.14801 416.50388
476.0 0.002101 411.20096 416.45993
401.0 0.002494 411.25302 416.42114
454.0 0.002203 411.30566 416.38855
409.0 0.002445 411.35825 416.36136
445.0 0.002247 411.41101 416.33951
450.0 0.002222 411.46466 416.32373
424.0 0.002358 411.51770 416.31223
454.0 0.002203 411.57129 416.30600
416.0 0.002404 411.62494 416.30435
415.0 0.002410 411.67926 416.07916
422.0 0.002370 411.73364 416.09045
434.0 0.002304 411.78778 416.10574
417.0 0.002398 411.84265 416.12595
409.0 0.002445 411.89709 416.14972
425.0 0.002353 411.95175 416.17780
399.0 0.002506 412.00723 416.21066
400.0 0.002500 412.06238 416.24713
415.0 0.002410 412.11792 416.28806
432.0 0.002315 412.17346 416.33295
399.0 0.002506 412.22946 416.38223
440.0 0.002273 412.28534 416.43530
441.0 0.002268 412.34091 416.49240
412.0 0.002427 412.39743 416.55438
412.0 0.002427 412.45343 416.62003
443.0 0.002257 412.51044 416.69092
423.0 0.002364 412.56744 416.76617
401.0 0.002494 412.62390 416.84549
433.0 0.002309 412.68073 416.92957
449.0 0.002227 412.73779 417.01883
409.0 0.002445 412.79514 417.11325
399.0 0.002506 412.85275 417.21310
425.0 0.002353 412.90991 417.31790
413.0 0.002421 412.96747 417.42865
434.0 0.002304 413.02521 417.54541
425.0 0.002353 413.08301 417.66849
446.0 0.002242 413.14151 417.79883
393.0 0.002545 413.19925 417.93527
450.0 0.002222 413.25739 418.07947
411.0 0.002433 413.31558 418.23148
411.0 0.002433 413.37457 418.39261
412.0 0.002427 413.43326 418.56244
397.0 0.002519 413.49133 418.74097
385.0 0.002597 413.55008 418.93048
432.0 0.002315 413.60858 419.13086
401.0 0.002494 413.66794 419.34387
428.0 0.002336 413.72678 419.56934
396.0 0.002525 413.78613 419.80917
408.0 0.002451 413.84485 420.06381
383.0 0.002611 413.90402 420.33536
403.0 0.002481 413.96341 420.62534
389.0 0.002571 414.02319 420.93570
432.0 0.002315 414.08231 421.26721
396.0 0.002525 414.14172 421.62326
366.0 0.002732 414.20126 422.00626
416.0 0.002404 414.26108 422.41916
399.0 0.002506 414.32071 422.86499
364.0 0.002747 414.38049 423.34784
447.0 0.002237 414.44022 423.87207
431.0 0.002320 414.49936 424.44217
391.0 0.002558 414.55966 425.06586
401.0 0.002494 414.61984 425.74911
408.0 0.002451 414.67892 426.49890
409.0 0.002445 414.73926 427.32718
428.0 0.002336 414.79916 428.24384
423.0 0.002364 414.85907 429.26282
409.0 0.002445 414.91922 430.40060
395.0 0.002532 414.97885 431.67621
417.0 0.002398 415.03903 433.11432
459.0 0.002179 415.09885 434.74329
444.0 0.002252 415.15875 436.59976
487.0 0.002053 415.21906 438.72983
424.0 0.002358 415.27893 440.25348
428.0 0.002336 415.33881 443.14017
446.0 0.002242 415.39850 446.54715
431.0 0.002320 415.45880 450.63190
468.0 0.002137 415.51892 455.62302
478.0 0.002092 415.57861 461.85834
479.0 0.002088 415.63861 469.82880
491.0 0.002037 415.69794 480.22079
497.0 0.002012 415.75787 493.95032
512.0 0.001953 415.81821 512.15497
554.0 0.001805 415.87741 536.13098
579.0 0.001727 415.93735 567.19531
609.0 0.001642 415.99698 606.43298
685.0 0.001460 416.05658 654.29169
747.0 0.001339 416.11667 709.85406
716.0 0.001397 416.17566 769.56488
812.0 0.001232 416.23526 825.57941
873.0 0.001145 416.29410 865.46448
852.0 0.001174 416.35349 876.66779
819.0 0.001221 416.41293 855.05664
812.0 0.001232 416.47177 808.41742
739.0 0.001353 416.53088 750.13000
699.0 0.001431 416.58957 691.30249
599.0 0.001669 416.64908 638.19818
631.0 0.001585 416.70761 593.31708
600.0 0.001667 416.76611 557.01593
561.0 0.001783 416.82486 528.57574
544.0 0.001838 416.88300 506.79834
502.0 0.001992 416.94186 490.35461
440.0 0.002273 417.00015 477.98706
517.0 0.001934 417.05786 468.62823
464.0 0.002155 417.11572 461.44141
493.0 0.002028 417.17380 455.80939
487.0 0.002053 417.23135 451.29694
489.0 0.002045 417.28961 447.60822
470.0 0.002128 417.34689 444.53973
424.0 0.002358 417.40393 441.95444
405.0 0.002469 417.46109 439.75510
477.0 0.002096 417.51852 437.87100
422.0 0.002370 417.57578 436.24817
403.0 0.002481 417.63177 434.84442
453.0 0.002208 417.68857 433.93246
437.0 0.002288 417.74460 432.88181
423.0 0.002364 417.80121 431.97238
402.0 0.002488 417.85760 431.18723
438.0 0.002283 417.91302 430.51263
434.0 0.002304 417.96899 429.94110
421.0 0.002375 418.02432 429.46515
393.0 0.002545 418.07974 429.08368
406.0 0.002463 418.13510 428.79874
435.0 0.002299 418.18982 428.61810
430.0 0.002326 418.24457 428.55835
449.0 0.002227 418.29883 428.64377
421.0 0.002375 418.35352 428.91000
391.0 0.002558 418.40771 429.40024
445.0 0.002247 418.46146 430.16504
420.0 0.002381 418.51492 431.25519
420.0 0.002381 418.56836 432.71179
424.0 0.002358 418.62180 434.55008
443.0 0.002257 418.67542 436.73199
410.0 0.002439 418.72778 439.11893
402.0 0.002488 418.78015 441.41345
407.0 0.002457 418.83212 443.13168
429.0 0.002331 418.88455 443.74496
400.0 0.002500 418.93646 442.99597
407.0 0.002457 418.98810 441.10352
431.0 0.002320 419.03885 438.58521
415.0 0.002410 419.08978 435.93546
410.0 0.002439 419.14111 433.46658
460.0 0.002174 419.19177 431.32309
455.0 0.002198 419.24109 429.54614
429.0 0.002331 419.29132 428.12320
409.0 0.002445 419.34076 427.01010
438.0 0.002283 419.39008 426.15433
440.0 0.002273 419.43942 425.50122
416.0 0.002404 419.48782 425.00134
451.0 0.002217 419.53650 424.61563
447.0 0.002237 419.58401 424.31198
444.0 0.002252 419.63251 424.17804
420.0 0.002381 419.68002 423.98175
431.0 0.002320 419.72672 423.96994
402.0 0.002488 419.77371 423.83636
408.0 0.002451 419.82001 423.72397
408.0 0.002451 419.86636 423.62970
444.0 0.002252 419.91226 423.55005
438.0 0.002283 419.95770 423.48315
434.0 0.002304 420.00302 423.42749
466.0 0.002146 420.04782 423.38098
428.0 0.002336 420.09216 423.34293
385.0 0.002597 420.13678 423.31293
444.0 0.002252 420.18005 423.28848
387.0 0.002584 420.22308 423.27008
410.0 0.002439 420.26651 423.25772
405.0 0.002469 420.30890 423.24954
443.0 0.002257 420.35126 423.24612
406.0 0.002463 420.39297 423.24634
404.0 0.002475 420.43481 423.25079
407.0 0.002457 420.47534 423.25775
430.0 0.002326 420.51611 423.26837
449.0 0.002227 420.55701 423.28253
459.0 0.002179 420.59637 423.29837
387.0 0.002584 420.63632 423.31769
409.0 0.002445 420.67496 423.33859
423.0 0.002364 420.71405 423.36273
390.0 0.002564 420.75229 423.38858
434.0 0.002304 420.78979 423.41632
420.0 0.002381 420.82690 423.44598
441.0 0.002268 420.86365 423.47778
431.0 0.002320 420.90067 423.51227
410.0 0.002439 420.93704 423.54831
412.0 0.002427 420.97217 423.58539
460.0 0.002174 421.00732 423.62488
411.0 0.002433 421.04163 423.66571
422.0 0.002370 421.07626 423.70914
403.0 0.002481 421.11038 423.75427
430.0 0.002326 421.14340 423.80060
391.0 0.002558 421.17651 423.84918
401.0 0.002494 421.20853 423.89905
421.0 0.002375 421.24081 423.95151
422.0 0.002370 421.27213 424.00534
381.0 0.002625 421.30310 424.06134
399.0 0.002506 421.33313 424.11884
413.0 0.002421 421.36319 424.17883
363.0 0.002755 421.39258 424.24091
393.0 0.002545 421.42175 424.30533
446.0 0.002242 421.44995 424.37177
389.0 0.002571 421.47794 424.44083
402.0 0.002488 421.50543 424.51224
410.0 0.002439 421.53201 424.58621
406.0 0.002463 421.55896 424.66364
408.0 0.002451 421.58463 424.74326
383.0 0.002611 421.60995 424.82617
412.0 0.002427 421.63455 424.91217
408.0 0.002451 421.65860 425.00168
403.0 0.002481 421.68234 425.09515
408.0 0.002451 421.70526 425.19220
396.0 0.002525 421.72803 425.29395
400.0 0.002500 421.74988 425.39969
396.0 0.002525 421.77121 425.51038
406.0 0.002463 421.79251 425.62680
386.0 0.002591 421.81244 425.74786
431.0 0.002320 421.83173 425.87476
393.0 0.002545 421.85086 426.00861
425.0 0.002353 421.86984 426.14975
427.0 0.002342 421.88815 426.29846
403.0 0.002481 421.90561 426.45505
385.0 0.002597 421.92191 426.61969
399.0 0.002506 421.93799 426.79465
441.0 0.002268 421.95355 426.98013
384.0 0.002604 421.96896 427.17743
423.0 0.002364 421.98312 427.38654
455.0 0.002198 421.99628 427.60941
409.0 0.002445 422.00974 427.84784
424.0 0.002358 422.02240 428.10300
400.0 0.002500 422.03424 428.37643
424.0 0.002358 422.04550 428.67014
399.0 0.002506 422.05527 428.53922
407.0 0.002457 422.06573 428.88724
386.0 0.002591 422.07486 429.26260
421.0 0.002375 422.08368 429.66934
465.0 0.002151 422.09171 430.11102
448.0 0.002232 422.09833 430.59125
399.0 0.002506 422.10535 431.11710
455.0 0.002198 422.11166 431.69327
437.0 0.002288 422.11694 432.32663
406.0 0.002463 422.12195 433.02600
390.0 0.002564 422.12494 433.79965
401.0 0.002494 422.12875 434.66180
398.0 0.002513 422.13110 435.62405
445.0 0.002247 422.13364 436.70499
414.0 0.002415 422.13504 437.92447
431.0 0.002320 422.13474 439.30789
460.0 0.002174 422.13467 440.89157
440.0 0.002273 422.13431 442.72055
449.0 0.002227 422.13278 444.85779
459.0 0.002179 422.13037 447.41208
425.0 0.002353 422.12689 450.47824
457.0 0.002188 422.12320 454.26645
451.0 0.002217 422.11908 459.05667
454.0 0.002203 422.11417 465.18344
461.0 0.002169 422.10825 473.14529
491.0 0.002037 422.10083 483.53543
443.0 0.002257 422.09335 497.03732
470.0 0.002128 422.08533 514.36157
477.0 0.002096 422.07669 536.15369
524.0 0.001908 422.06720 562.85376
609.0 0.001642 422.05606 594.49548
671.0 0.001490 422.04498 630.39740
654.0 0.001529 422.03329 668.66718
775.0 0.001290 422.02075 705.57861
807.0 0.001239 422.00763 735.30804
836.0 0.001196 421.99258 751.14545
799.0 0.001252 421.97787 748.67938
748.0 0.001337 421.96216 728.70331
718.0 0.001393 421.94547 696.65479
608.0 0.001645 421.92834 659.24744
553.0 0.001808 421.90979 621.75470
551.0 0.001815 421.89096 587.33380
553.0 0.001808 421.87112 557.47992
565.0 0.001770 421.85089 532.63910
517.0 0.001934 421.82956 512.64136
505.0 0.001980 421.80670 496.97720
466.0 0.002146 421.78394 484.97827
491.0 0.002037 421.76047 475.93958
500.0 0.002000 421.73596 469.20804
497.0 0.002012 421.71051 464.22961
521.0 0.001919 421.68329 460.56644
491.0 0.002037 421.65625 457.89682
495.0 0.002020 421.62848 455.99396
491.0 0.002037 421.59995 454.70847
486.0 0.002058 421.57037 453.95074
516.0 0.001938 421.53918 453.67670
460.0 0.002174 421.50781 453.88303
486.0 0.002058 421.47568 454.72321
487.0 0.002053 421.44287 456.01849
505.0 0.001980 421.40900 458.05182
523.0 0.001912 421.37341 461.00223
499.0 0.002004 421.33838 465.14825
526.0 0.001901 421.30161 470.85141
517.0 0.001934 421.26434 478.56082
517.0 0.001934 421.22604 488.78592
530.0 0.001887 421.18631 502.05466
567.0 0.001764 421.14618 518.84277
567.0 0.001764 421.10556 539.46594
512.0 0.001953 421.06378 563.93073
596.0 0.001678 421.02094 591.71167
678.0 0.001475 420.97672 621.42029
649.0 0.001541 420.93234 650.42700
682.0 0.001466 420.88708 674.73877
638.0 0.001567 420.84100 689.70721
665.0 0.001504 420.79385 691.77032
669.0 0.001495 420.74487 680.30133
601.0 0.001664 420.69583 658.00397
607.0 0.001647 420.64597 629.42621
576.0 0.001736 420.59488 598.95477
598.0 0.001672 420.54312 569.69916
558.0 0.001792 420.49005 543.41058
541.0 0.001848 420.43613 520.84692
503.0 0.001988 420.38144 502.13693
478.0 0.002092 420.32620 487.03891
501.0 0.001996 420.26990 475.10880
486.0 0.002058 420.21143 465.81696
497.0 0.002012 420.15326 458.63391
454.0 0.002203 420.09372 453.07489
476.0 0.002101 420.03323 448.73474
485.0 0.002062 419.97186 445.29364
470.0 0.002128 419.90906 442.51047
434.0 0.002304 419.84592 440.21274
457.0 0.002188 419.78177 438.27719
468.0 0.002137 419.71698 436.61887
459.0 0.002179 419.65045 435.17740
461.0 0.002169 419.58252 433.91010
450.0 0.002222 419.51483 432.78784
448.0 0.002232 419.44580 431.78543
453.0 0.002208 419.37515 430.88440
412.0 0.002427 419.30426 430.07074
423.0 0.002364 419.23160 429.33145
450.0 0.002222 419.15854 428.65765
442.0 0.002262 419.08450 428.04068
433.0 0.002309 419.00995 427.47345
446.0 0.002242 418.93381 426.94934
418.0 0.002392 418.85602 426.46274
402.0 0.002488 418.77768 426.01074
439.0 0.002278 418.69864 425.58936
453.0 0.002208 418.61850 425.19443
443.0 0.002257 418.53729 424.82361
406.0 0.002463 418.45468 424.47400
396.0 0.002525 418.37189 424.14441
393.0 0.002545 418.28723 423.83163
394.0 0.002538 418.20227 423.53513
432.0 0.002315 418.11588 423.25266
411.0 0.002433 418.02786 422.98236
422.0 0.002370 417.93976 422.72495
433.0 0.002309 417.85025 422.47787
418.0 0.002392 417.75992 422.24078
430.0 0.002326 417.66846 422.01257
433.0 0.002309 417.57556 421.79230
420.0 0.002381 417.48196 421.57993
427.0 0.002342 417.38730 421.37457
422.0 0.002370 417.29147 421.17557
385.0 0.002597 417.19489 420.98279
440.0 0.002273 417.09656 420.79501
395.0 0.002532 416.99777 420.61295
422.0 0.002370 416.89798 420.43588
415.0 0.002410 416.79672 420.26279
439.0 0.002278 416.69449 420.09415
417.0 0.002398 416.59128 419.92975
440.0 0.002273 416.48715 419.76926
412.0 0.002427 416.38150 419.61203
438.0 0.002283 416.27551 419.45889
378.0 0.002646 416.16782 419.30856
428.0 0.002336 416.05902 419.16153
431.0 0.002320 415.94925 419.01788
435.0 0.002299 415.83884 418.87750
402.0 0.002488 415.72702 418.74011
421.0 0.002375 415.61365 418.60510
425.0 0.002353 415.49951 418.47348
429.0 0.002331 415.38446 418.34546
419.0 0.002387 415.26834 418.22757
436.0 0.002294 415.15103 418.10590
429.0 0.002331 415.03311 418.07172
456.0 0.002193 414.91266 417.95688
390.0 0.002564 414.79221 417.84665
469.0 0.002132 414.67053 417.74054
421.0 0.002375 414.54785 417.63852
400.0 0.002500 414.42395 417.54108
416.0 0.002404 414.29822 417.44785
447.0 0.002237 414.17230 417.36066
446.0 0.002242 414.04492 417.27893
384.0 0.002604 413.91663 417.20395
436.0 0.002294 413.78714 417.13641
456.0 0.002193 413.65604 417.07635
412.0 0.002427 413.52484 417.02612
412.0 0.002427 413.39191 416.98575
421.0 0.002375 413.25800 416.95694
390.0 0.002564 413.12283 416.94165
424.0 0.002358 412.98563 416.94083
442.0 0.002262 412.84885 416.95947
432.0 0.002315 412.71021 416.99887
413.0 0.002421 412.57025 417.06424
462.0 0.002165 412.42975 417.16293
408.0 0.002451 412.28754 417.30136
459.0 0.002179 412.14450 417.49365
430.0 0.002326 412.00049 417.75644
410.0 0.002439 411.85516 418.11261
410.0 0.002439 411.70834 418.59439
431.0 0.002320 411.56024 419.24261
434.0 0.002304 411.41165 420.11005
456.0 0.002193 411.26190 421.25586
423.0 0.002364 411.11102 422.74704
439.0 0.002278 410.95886 424.65015
444.0 0.002252 410.80493 427.05170
404.0 0.002475 410.64993 429.93701
422.0 0.002370 410.49451 433.33731
452.0 0.002212 410.33771 437.19513
443.0 0.002257 410.17984 441.36362
432.0 0.002315 410.02020 445.56992
487.0 0.002053 409.85977 449.40497
450.0 0.002222 409.69824 452.37289
447.0 0.002237 409.53589 454.01526
475.0 0.002105 409.37225 454.05215
489.0 0.002045 409.20651 452.46643
471.0 0.002123 409.04022 449.21338
463.0 0.002160 408.87335 445.35446
459.0 0.002179 408.70456 441.08786
458.0 0.002183 408.53510 436.83936
413.0 0.002421 408.36414 432.89661
438.0 0.002283 408.19199 429.41891
423.0 0.002364 408.01886 426.47314
428.0 0.002336 407.84454 424.06332
420.0 0.002381 407.66910 422.15756
447.0 0.002237 407.49200 420.70200
452.0 0.002212 407.31436 419.63828
461.0 0.002169 407.13519 418.90594
418.0 0.002392 406.95529 418.45529
445.0 0.002247 406.77359 418.24634
421.0 0.002375 406.59052 418.25577
426.0 0.002347 406.40710 418.47729
405.0 0.002469 406.22241 418.92233
450.0 0.002222 406.03632 419.62329
433.0 0.002309 405.84915 420.63931
414.0 0.002415 405.66034 422.05603
434.0 0.002304 405.47055 423.99362
458.0 0.002183 405.27988 426.60336
427.0 0.002342 405.08807 430.06696
471.0 0.002123 404.89496 434.58664
465.0 0.002151 404.70016 440.36694
457.0 0.002188 404.50443 447.59293
473.0 0.002114 404.30792 456.39273
458.0 0.002183 404.11005 466.79547
524.0 0.001908 403.91116 478.67603
499.0 0.002004 403.71069 491.66925
537.0 0.001862 403.50870 505.05832
527.0 0.001898 403.30637 517.65637
548.0 0.001825 403.10254 527.79437
530.0 0.001887 402.89792 533.63483
504.0 0.001984 402.69110 533.85834
547.0 0.001828 402.48361 528.35657
478.0 0.002092 402.27539 518.29065
519.0 0.001927 402.06558 505.35971
499.0 0.002004 401.85477 491.50870
478.0 0.002092 401.64215 477.74536
432.0 0.002315 401.42871 465.15601
415.0 0.002410 401.21457 453.99988
460.0 0.002174 400.99884 444.43274
441.0 0.002268 400.78186 436.44370
428.0 0.002336 400.56348 429.91571
392.0 0.002551 400.34436 424.67023
397.0 0.002519 400.12396 420.50034
421.0 0.002375 399.90240 417.19962
398.0 0.002513 399.67923 414.57892
391.0 0.002558 399.45551 412.47748
396.0 0.002525 399.23013 410.76447
408.0 0.002451 399.00406 409.34018
436.0 0.002294 398.77661 408.13022
439.0 0.002278 398.54758 407.08020
396.0 0.002525 398.31738 406.15302
429.0 0.002331 398.08633 405.32178
378.0 0.002646 397.85410 404.56696
392.0 0.002551 397.62097 403.87537
393.0 0.002545 397.38608 403.23526
423.0 0.002364 397.14999 402.63959
412.0 0.002427 396.91299 402.08185
401.0 0.002494 396.67487 401.55728
392.0 0.002551 396.43555 401.06085
423.0 0.002364 396.19516 400.58987
385.0 0.002597 395.95276 400.13974
393.0 0.002545 395.71011 399.70984
431.0 0.002320 395.46625 399.29700
388.0 0.002577 395.22067 398.89914
364.0 0.002747 394.97437 398.51523
387.0 0.002584 394.72647 398.14334
395.0 0.002532 394.47772 397.78256
420.0 0.002381 394.22787 397.43185
427.0 0.002342 393.97678 397.09036
401.0 0.002494 393.72458 396.75699
375.0 0.002667 393.47101 396.43130
414.0 0.002415 393.21597 396.11203
403.0 0.002481 392.96008 395.79974
418.0 0.002392 392.70331 395.49384
380.0 0.002632 392.44489 395.19296
382.0 0.002618 392.18530 394.89743
380.0 0.002632 391.92496 394.60770
376.0 0.002660 391.66360 394.32269
436.0 0.002294 391.40070 394.04214
386.0 0.002591 391.13672 393.76648
370.0 0.002703 390.87155 393.49518
410.0 0.002439 390.60529 393.22867
395.0 0.002532 390.33771 392.96643
411.0 0.002433 390.06897 392.70898
395.0 0.002532 389.79898 392.45584
402.0 0.002488 389.52817 392.20819
374.0 0.002674 389.25583 391.96497
381.0 0.002625 388.98251 391.72745
412.0 0.002427 388.70801 391.49524
396.0 0.002525 388.43240 391.26932
362.0 0.002762 388.15546 391.04935
406.0 0.002463 387.87787 390.83691
430.0 0.002326 387.59888 390.63147
365.0 0.002740 387.31903 390.43445
354.0 0.002825 387.03717 390.24579
426.0 0.002347 386.75449 390.06674
391.0 0.002558 386.47150 389.89963
371.0 0.002695 386.18631 389.74365
403.0 0.002481 385.90097 389.60181
460.0 0.002174 385.61380 389.47464
410.0 0.002439 385.32541 389.36411
379.0 0.002639 385.03598 389.27307
401.0 0.002494 384.74582 389.20392
379.0 0.002639 384.45432 389.15985
392.0 0.002551 384.16141 389.14417
387.0 0.002584 383.86719 389.16153
385.0 0.002597 383.57230 389.21912
383.0 0.002611 383.27631 389.32602
393.0 0.002545 382.97940 389.48904
395.0 0.002532 382.68106 389.75922
405.0 0.002469 382.38141 390.08707
395.0 0.002532 382.08075 390.53592
373.0 0.002681 381.77902 391.14410
385.0 0.002597 381.47641 391.96454
383.0 0.002611 381.17273 393.06702
398.0 0.002513 380.86765 394.53979
372.0 0.002688 380.56125 396.49231
371.0 0.002695 380.25412 399.05200
352.0 0.002841 379.94565 402.35678
409.0 0.002445 379.63644 406.54855
395.0 0.002532 379.32581 411.75397
424.0 0.002358 379.01431 418.06711
411.0 0.002433 378.70193 425.52396
423.0 0.002364 378.38766 434.07010
445.0 0.002247 378.07312 443.52292
430.0 0.002326 377.75714 453.51297
436.0 0.002294 377.43936 463.42487
451.0 0.002217 377.12161 472.35687
467.0 0.002141 376.80252 479.17517
505.0 0.001980 376.48209 482.75034
455.0 0.002198 376.16049 482.35281
443.0 0.002257 375.83832 477.99283
501.0 0.001996 375.51456 470.42322
497.0 0.002012 375.19028 460.80066
437.0 0.002288 374.86429 450.27026
446.0 0.002242 374.53766 439.73035
470.0 0.002128 374.20966 429.78015
441.0 0.002268 373.88089 420.77298
384.0 0.002604 373.55054 412.87943
384.0 0.002604 373.21997 406.14713
388.0 0.002577 372.88757 400.53662
408.0 0.002451 372.55478 395.95581
415.0 0.002410 372.22073 392.28192
361.0 0.002770 371.88556 389.38339
411.0 0.002433 371.54941 387.13516
362.0 0.002762 371.21198 385.42810
346.0 0.002890 370.87387 384.17859
376.0 0.002660 370.53433 383.32730
375.0 0.002667 370.19412 382.84052
375.0 0.002667 369.85254 382.70422
375.0 0.002667 369.50995 382.92197
396.0 0.002525 369.16638 383.50479
378.0 0.002646 368.82199 384.46527
385.0 0.002597 368.47641 385.80875
386.0 0.002591 368.13000 387.52502
448.0 0.002232 367.78253 389.55899
400.0 0.002500 367.43378 391.86923
372.0 0.002688 367.08469 394.30261
433.0 0.002309 366.73383 396.63577
427.0 0.002342 366.38211 398.61224
416.0 0.002404 366.02966 399.87192
378.0 0.002646 365.67630 400.11044
424.0 0.002358 365.32138 399.17944
428.0 0.002336 364.96594 397.15857
392.0 0.002551 364.60980 394.31415
382.0 0.002618 364.25211 390.98447
416.0 0.002404 363.89337 387.47723
415.0 0.002410 363.53400 384.02200
422.0 0.002370 363.17355 380.76843
393.0 0.002545 362.81201 377.80191
399.0 0.002506 362.44986 375.16278
409.0 0.002445 362.08627 372.85794
386.0 0.002591 361.72241 370.87320
382.0 0.002618 361.35693 369.17807
382.0 0.002618 360.99057 367.73517
374.0 0.002674 360.62363 366.50436
386.0 0.002591 360.25543 365.44580
383.0 0.002611 359.88629 364.52332
364.0 0.002747 359.51624 363.70660
354.0 0.002825 359.14523 362.97083
370.0 0.002703 358.77335 362.29633
356.0 0.002809 358.40091 361.66800
370.0 0.002703 358.02707 361.07529
375.0 0.002667 357.65213 360.50946
346.0 0.002890 357.27655 360.00946
383.0 0.002611 356.90005 359.48346
357.0 0.002801 356.52261 358.97894
341.0 0.002933 356.14432 358.47949
342.0 0.002924 355.76492 357.99051
342.0 0.002924 355.38464 357.50995
349.0 0.002865 355.00385 357.03754
326.0 0.003067 354.62137 356.57132
357.0 0.002801 354.23874 356.11148
376.0 0.002660 353.85486 355.53760
346.0 0.002890 353.47021 355.08878
341.0 0.002933 353.08499 354.64426
364.0 0.002747 352.69846 354.20303
354.0 0.002825 352.31104 353.76480
311.0 0.003215 351.92294 353.32956
357.0 0.002801 351.53381 352.89688
401.0 0.002494 351.14377 352.46643
352.0 0.002841 350.75333 352.03821
333.0 0.003003 350.36151 351.61118
335.0 0.002985 349.96890 351.18616
322.0 0.003106 349.57565 350.76239
354.0 0.002825 349.18124 350.33987
373.0 0.002681 348.78653 349.91879
370.0 0.002703 348.39014 349.49786
322.0 0.003106 347.99350 349.07870
335.0 0.002985 347.59607 348.66010
325.0 0.003077 347.19781 348.24255
345.0 0.002899 346.79840 347.82492
357.0 0.002801 346.39838 347.42191
312.0 0.003205 345.99753 347.00604
337.0 0.002967 345.59567 346.59015
354.0 0.002825 345.19363 346.17542
334.0 0.002994 344.79007 345.83054
339.0 0.002950 344.38565 345.41666
331.0 0.003021 343.98096 345.00339
364.0 0.002747 343.57538 344.59036
357.0 0.002801 343.16879 344.17761
349.0 0.002865 342.76172 343.76526
349.0 0.002865 342.35349 343.35272
336.0 0.002976 341.94455 342.94083
310.0 0.003226 341.53494 342.52914
333.0 0.003003 341.12451 342.11755
302.0 0.003311 340.71332 341.70621
323.0 0.003096 340.30182 341.29565
374.0 0.002674 339.88864 340.88461
370.0 0.002703 339.47510 340.47412
340.0 0.002941 339.06097 340.06412
331.0 0.003021 338.64615 339.65475
335.0 0.002985 338.23047 339.24551
358.0 0.002793 337.81406 338.83667
344.0 0.002907 337.39697 338.42868
336.0 0.002976 336.97882 338.02084
348.0 0.002874 336.56036 337.61392
318.0 0.003145 336.14084 337.20731
322.0 0.003106 335.72076 336.80167
365.0 0.002740 335.29993 336.39703
323.0 0.003096 334.87851 335.99341
336.0 0.002976 334.45627 335.59088
351.0 0.002849 334.03320 335.18921
348.0 0.002874 333.60965 334.78943
339.0 0.002950 333.18521 334.39044
316.0 0.003165 332.76031 333.99390
307.0 0.003257 332.33459 333.59891
339.0 0.002950 331.90820 333.20630
338.0 0.002959 331.48111 332.81586
328.0 0.003049 331.05310 332.42804
307.0 0.003257 330.62485 332.04361
283.0 0.00353 330.19553 331.66205
334.0 0.002994 329.76569 331.28476
319.0 0.003135 329.33566 330.91214
334.0 0.002994 328.90417 330.54382
311.0 0.003215 328.47287 330.18167
330.0 0.003030 328.04004 329.82532
358.0 0.002793 327.60690 329.47641
328.0 0.003049 327.17355 329.13641
294.0 0.003401 326.73944 328.80627
330.0 0.003030 326.30475 328.48782
329.0 0.003040 325.86874 328.18332
318.0 0.003145 325.43292 327.89624
362.0 0.002762 324.99570 327.63028
303.0 0.003300 324.55807 327.39249
297.0 0.003367 324.12067 327.19037
317.0 0.003155 323.68192 327.03418
306.0 0.003268 323.24258 326.93866
324.0 0.003086 322.80276 326.92197
335.0 0.002985 322.36212 327.00772
330.0 0.003030 321.92139 327.22430
331.0 0.003021 321.47983 327.60413
313.0 0.003195 321.03717 328.18393
320.0 0.003125 320.59451 329.00275
344.0 0.002907 320.15121 330.09723
334.0 0.002994 319.70782 331.49991
326.0 0.003067 319.26309 333.23203
295.0 0.003390 318.81754 335.29974
351.0 0.002849 318.37219 337.68863
325.0 0.003077 317.92615 340.35150
298.0 0.003356 317.47986 343.20117
328.0 0.003049 317.03198 346.09653
341.0 0.002933 316.58444 348.83557
324.0 0.003086 316.13608 351.15082
323.0 0.003096 315.68719 352.73978
323.0 0.003096 315.23819 353.32657
335.0 0.002985 314.78802 352.75125
380.0 0.002632 314.33749 351.08521
327.0 0.003058 313.88693 348.40799
332.0 0.003012 313.43530 345.06821
339.0 0.002950 312.98349 341.37122
341.0 0.002933 312.53088 337.57327
322.0 0.003106 312.07813 333.86517
346.0 0.002890 311.62482 330.37210
338.0 0.002959 311.17050 327.16937
342.0 0.002924 310.71646 324.29620
324.0 0.003086 310.26160 321.76022
294.0 0.003401 309.80612 319.55099
323.0 0.003096 309.35031 317.64325
334.0 0.002994 308.89349 316.00317
324.0 0.003086 308.43701 314.59341
305.0 0.003279 307.97998 313.37524
285.0 0.00351 307.52225 312.31253
337.0 0.002967 307.06403 311.37326
330.0 0.003030 306.60532 310.52335
305.0 0.003279 306.14667 309.75565
319.0 0.003135 305.68695 308.96170
272.0 0.00368 305.22729 308.29562
295.0 0.003390 304.76645 307.66290
308.0 0.003247 304.30579 307.05743
349.0 0.002865 303.84479 306.47275
313.0 0.003195 303.38297 305.90543
352.0 0.002841 302.92123 305.35260
292.0 0.003425 302.45883 304.81177
303.0 0.003300 301.99557 304.28125
314.0 0.003185 301.53275 303.76086
303.0 0.003300 301.06894 303.24786
322.0 0.003106 300.60489 302.74249
318.0 0.003145 300.14041 302.24387
308.0 0.003247 299.67551 301.75122
317.0 0.003155 299.21024 301.26471
281.0 0.00356 298.74487 300.78345
303.0 0.003300 298.27899 300.30725
299.0 0.003344 297.81210 299.83536
320.0 0.003125 297.34576 299.36877
305.0 0.003279 296.87885 298.90665
296.0 0.003378 296.41098 298.44794
295.0 0.003390 295.94321 297.99408
359.0 0.002786 295.47504 297.54459
286.0 0.003497 295.00662 297.09937
304.0 0.003289 294.53796 296.65881
318.0 0.003145 294.06860 296.22205
312.0 0.003205 293.59933 295.79031
322.0 0.003106 293.12952 295.36313
331.0 0.003021 292.65924 294.94086
364.0 0.002747 292.18845 294.52390
284.0 0.00352 291.71768 294.11292
loop_
_refln_index_h
_refln_index_k
_refln_index_l
_refln_observed_status
_refln_F_squared_meas
_refln_F_squared_calc
_refln_phase_calc
_refln_d_spacing
_gsas_i100_meas
0 0 1 o 1326.321 1434.779 0.00 5.93778 37.97
0 0 2 o 124.134 66.572 0.00 2.96889 0.82
1 0 0 o 510.030 389.299 0.00 2.96217 31.87
1 0 1 o 123.341 116.531 0.00 2.65065 4.27
1 0 -1 o 2523.754 2364.146 0.00 2.65065 100.00
1 0 2 o 1193.988 1245.207 0.00 2.09694 21.03
1 0 -2 o 1218.772 1271.086 0.00 2.09694 21.48
0 0 3 o 208.165 607.867 0.00 1.97926 0.67
1 1 0 o 1409.385 1488.073 0.00 1.71021 32.43
1 0 -3 o 64.569 58.342 0.00 1.64570 0.51
1 0 3 o 1408.217 1247.805 0.00 1.64570 13.11
1 1 1 o 510.259 458.303 0.00 1.64340 18.71
0 0 4 o 1723.005 1153.558 0.00 1.48445 3.41
1 1 2 o 25.960 19.145 0.00 1.48192 0.50
2 0 0 o 201.783 138.063 0.00 1.48109 3.32
2 0 -1 o 38.999 35.480 0.00 1.43706 0.48
2 0 1 o 1075.604 956.547 0.00 1.43706 16.36
1 0 4 o 93.126 105.220 0.00 1.32713 0.48
1 0 -4 o 84.001 94.808 0.00 1.32713 0.43
2 0 -2 o 493.518 544.991 0.00 1.32532 5.31
2 0 2 o 504.536 557.201 0.00 1.32532 5.43
1 1 3 o 367.152 255.442 0.00 1.29405 5.62
0 0 5 o 126.494 215.238 0.00 1.18756 0.16
2 0 3 o 11.180 14.424 0.00 1.18583 0.05
2 0 -3 o 432.534 625.179 0.00 1.18583 3.26
_journal_paper_doi 10.1039/b315782m
