# alpha-O (hcp of diatomic molecules)
# xy-plane is hexagonal close-packed plane of hcp
data_nolabel
_chemical_formula_sum            O2
_symmetry_space_group_name_H-M   'C2/m'
_cell_length_a                   5.389
_cell_length_b                   3.433
_cell_length_c                   5.071
_cell_angle_alpha                90
_cell_angle_beta                 132.27
_cell_angle_gamma                90
_diffrn_ambient_temperature      6
loop_
_atom_site_type_symbol
_atom_site_fract_x
_atom_site_fract_y
_atom_site_fract_z
_atom_site_Wyckoff_symbol
O  .105  0  .171  4i
