# beta-O (fcc of diatomic molecules)
data_nolabel
_chemical_formula_sum            O2
_symmetry_space_group_name_H-M   'R-3m'
_cell_length_a                   3.289
_cell_length_b                   3.289
_cell_length_c                   11.281
_cell_angle_alpha                90
_cell_angle_beta                 90
_cell_angle_gamma                120
_diffrn_ambient_temperature      30
loop_
_atom_site_type_symbol
_atom_site_fract_x
_atom_site_fract_y
_atom_site_fract_z
_atom_site_Wyckoff_symbol
O  0  0  .0543  2c
