data_Meller55
_journal_name_full               'Acta Cryst.'
_journal_page_first              343
_journal_volume                  8
_journal_year                    1955
loop_
_publ_author_name
'Meller, F'
'Fankuchen, I'
_chemical_name_systematic        'Tin tetraiodide'
_chemical_formula_sum            SnI4
_cell_length_a                   12.26
_cell_length_b                   12.26
_cell_length_c                   12.26
_cell_angle_alpha                90
_cell_angle_beta                 90
_cell_angle_gamma                90
_cell_formula_units_Z            8
_symmetry_cell_setting           cubic
_symmetry_space_group_name_H-M   'P a -3'
_symmetry_Int_Tables_number      205
loop_
_symmetry_equiv_pos_as_xyz
x,y,z
1/2+x,1/2-y,-z
-x,1/2+y,1/2-z
1/2-x,-y,1/2+z
y,z,x
1/2-y,-z,1/2+x
1/2+y,1/2-z,-x
-y,1/2+z,1/2-x
z,x,y
-z,1/2+x,1/2-y
1/2-z,-x,1/2+y
1/2+z,1/2-x,-y
-x,-y,-z
1/2-x,1/2+y,z
x,1/2-y,1/2+z
1/2+x,y,1/2-z
-y,-z,-x
1/2+y,z,1/2-x
1/2-y,1/2+z,x
y,1/2-z,1/2+x
-z,-x,-y
z,1/2-x,1/2+y
1/2+z,x,1/2-y
1/2-z,1/2+x,y
loop_
_atom_site_label
_atom_site_Wyckoff_symbol
_atom_site_fract_x
_atom_site_fract_y
_atom_site_fract_z
Sn1 8c  0.125  0.125 0.125
I1  8c  0.252  0.252 0.252
I2 24d -0.002 -0.002 0.252
