data_nolabel
_citation_journal_full 'The European Physical Journal B'
_citation_year 2003
_citation_journal_volume 35
_citation_page_first 311
loop_
_publ_author_name
'Reehuis, M.'
'Krimmel, A.'
'Buettgen, N.'
'Loidl, A.'
'Prokofiev, A.'
_chemical_formula_sum 'ZnV2O4'
_cell_measurement_temperature 1.8
_cell_length_a    5.9526(4)
_cell_length_b    5.9526(4)
_cell_length_c    8.3744(6)
_cell_angle_alpha 90
_cell_angle_beta  90
_cell_angle_gamma 90
_symmetry_space_group_name_H-M 'I 41/a m d Z'
_symmetry_Int_Tables_number 141
loop_
_symmetry_equiv_pos_as_xyz
'y+1/4,x+3/4,-z+1/4'
'y+1/4,-x+3/4,-z+1/4'
'x,y+1/2,-z'
'x,-y,-z'
'-y+3/4,x+3/4,-z+1/4'
'-y+3/4,-x+3/4,-z+1/4'
'-x,y+1/2,-z'
'-x,-y,-z'
'-y+3/4,-x+1/4,z+3/4'
'-y+3/4,x+1/4,z+3/4'
'-x,-y+1/2,z'
'-x,y,z'
'y+1/4,-x+1/4,z+3/4'
'y+1/4,x+1/4,z+3/4'
'x,-y+1/2,z'
'x,y,z'
'y+3/4,x+1/4,-z+3/4'
'y+3/4,-x+1/4,-z+3/4'
'x+1/2,y,-z+1/2'
'x+1/2,-y+1/2,-z+1/2'
'-y+1/4,x+1/4,-z+3/4'
'-y+1/4,-x+1/4,-z+3/4'
'-x+1/2,y,-z+1/2'
'-x+1/2,-y+1/2,-z+1/2'
'-y+1/4,-x+3/4,z+1/4'
'-y+1/4,x+3/4,z+1/4'
'-x+1/2,-y,z+1/2'
'-x+1/2,y+1/2,z+1/2'
'y+3/4,-x+3/4,z+1/4'
'y+3/4,x+3/4,z+1/4'
'x+1/2,-y,z+1/2'
'x+1/2,y+1/2,z+1/2'
loop_
_atom_site_label
_atom_site_symmetry_multiplicity
_atom_site_Wyckoff_symbol
_atom_site_fract_x
_atom_site_fract_y
_atom_site_fract_z
Zn  4 a   0 0.75      0.125
V   8 d   0 0         0.5
O  16 h   0 0.0200(5) 0.2611(5)
