data_nolabel
_citation_journal_full 'The European Physical Journal B'
_citation_year 2003
_citation_journal_volume 35
_citation_page_first 311
_publ_author_name
'Reehuis, M.'
'Krimmel, A.'
'Buettgen, N.'
'Loidl, A.'
'Prokofiev, A.'
_chemical_formula_sum 'ZnV2O4'
_cell_measurement_temperature 60.
_cell_length_a    8.4028(4)
_cell_length_b    8.4028(4)
_cell_length_c    8.4028(4)
_cell_angle_alpha 90
_cell_angle_beta  90
_cell_angle_gamma 90
_symmetry_space_group_name_H-M 'F d -3 m Z'
_symmetry_Int_Tables_number 227
loop_
_symmetry_equiv_pos_as_xyz
'-z,y+3/4,x+3/4'
'z+3/4,-y,x+3/4'
'z+3/4,y+3/4,-x'
'-z,-y,-x'
'y+3/4,x+3/4,-z'
'-y,x+3/4,z+3/4'
'y+3/4,-x,z+3/4'
'-y,-x,-z'
'x+3/4,-z,y+3/4'
'x+3/4,z+3/4,-y'
'-x,z+3/4,y+3/4'
'-x,-z,-y'
'-z,x+3/4,y+3/4'
'z+3/4,x+3/4,-y'
'z+3/4,-x,y+3/4'
'-z,-x,-y'
'y+3/4,-z,x+3/4'
'-y,z+3/4,x+3/4'
'y+3/4,z+3/4,-x'
'-y,-z,-x'
'x+3/4,y+3/4,-z'
'x+3/4,-y,z+3/4'
'-x,y+3/4,z+3/4'
'-x,-y,-z'
'z,-y+1/4,-x+1/4'
'-z+1/4,y,-x+1/4'
'-z+1/4,-y+1/4,x'
'z,y,x'
'-y+1/4,-x+1/4,z'
'y,-x+1/4,-z+1/4'
'-y+1/4,x,-z+1/4'
'y,x,z'
'-x+1/4,z,-y+1/4'
'-x+1/4,-z+1/4,y'
'x,-z+1/4,-y+1/4'
'x,z,y'
'z,-x+1/4,-y+1/4'
'-z+1/4,-x+1/4,y'
'-z+1/4,x,-y+1/4'
'z,x,y'
'-y+1/4,z,-x+1/4'
'y,-z+1/4,-x+1/4'
'-y+1/4,-z+1/4,x'
'y,z,x'
'-x+1/4,-y+1/4,z'
'-x+1/4,y,-z+1/4'
'x,-y+1/4,-z+1/4'
'x,y,z'
'-z,y+1/4,x+1/4'
'z+3/4,-y+1/2,x+1/4'
'z+3/4,y+1/4,-x+1/2'
'-z,-y+1/2,-x+1/2'
'y+3/4,x+1/4,-z+1/2'
'-y,x+1/4,z+1/4'
'y+3/4,-x+1/2,z+1/4'
'-y,-x+1/2,-z+1/2'
'x+3/4,-z+1/2,y+1/4'
'x+3/4,z+1/4,-y+1/2'
'-x,z+1/4,y+1/4'
'-x,-z+1/2,-y+1/2'
'-z,x+1/4,y+1/4'
'z+3/4,x+1/4,-y+1/2'
'z+3/4,-x+1/2,y+1/4'
'-z,-x+1/2,-y+1/2'
'y+3/4,-z+1/2,x+1/4'
'-y,z+1/4,x+1/4'
'y+3/4,z+1/4,-x+1/2'
'-y,-z+1/2,-x+1/2'
'x+3/4,y+1/4,-z+1/2'
'x+3/4,-y+1/2,z+1/4'
'-x,y+1/4,z+1/4'
'-x,-y+1/2,-z+1/2'
'z,-y+3/4,-x+3/4'
'-z+1/4,y+1/2,-x+3/4'
'-z+1/4,-y+3/4,x+1/2'
'z,y+1/2,x+1/2'
'-y+1/4,-x+3/4,z+1/2'
'y,-x+3/4,-z+3/4'
'-y+1/4,x+1/2,-z+3/4'
'y,x+1/2,z+1/2'
'-x+1/4,z+1/2,-y+3/4'
'-x+1/4,-z+3/4,y+1/2'
'x,-z+3/4,-y+3/4'
'x,z+1/2,y+1/2'
'z,-x+3/4,-y+3/4'
'-z+1/4,-x+3/4,y+1/2'
'-z+1/4,x+1/2,-y+3/4'
'z,x+1/2,y+1/2'
'-y+1/4,z+1/2,-x+3/4'
'y,-z+3/4,-x+3/4'
'-y+1/4,-z+3/4,x+1/2'
'y,z+1/2,x+1/2'
'-x+1/4,-y+3/4,z+1/2'
'-x+1/4,y+1/2,-z+3/4'
'x,-y+3/4,-z+3/4'
'x,y+1/2,z+1/2'
'-z+1/2,y+3/4,x+1/4'
'z+1/4,-y,x+1/4'
'z+1/4,y+3/4,-x+1/2'
'-z+1/2,-y,-x+1/2'
'y+1/4,x+3/4,-z+1/2'
'-y+1/2,x+3/4,z+1/4'
'y+1/4,-x,z+1/4'
'-y+1/2,-x,-z+1/2'
'x+1/4,-z,y+1/4'
'x+1/4,z+3/4,-y+1/2'
'-x+1/2,z+3/4,y+1/4'
'-x+1/2,-z,-y+1/2'
'-z+1/2,x+3/4,y+1/4'
'z+1/4,x+3/4,-y+1/2'
'z+1/4,-x,y+1/4'
'-z+1/2,-x,-y+1/2'
'y+1/4,-z,x+1/4'
'-y+1/2,z+3/4,x+1/4'
'y+1/4,z+3/4,-x+1/2'
'-y+1/2,-z,-x+1/2'
'x+1/4,y+3/4,-z+1/2'
'x+1/4,-y,z+1/4'
'-x+1/2,y+3/4,z+1/4'
'-x+1/2,-y,-z+1/2'
'z+1/2,-y+1/4,-x+3/4'
'-z+3/4,y,-x+3/4'
'-z+3/4,-y+1/4,x+1/2'
'z+1/2,y,x+1/2'
'-y+3/4,-x+1/4,z+1/2'
'y+1/2,-x+1/4,-z+3/4'
'-y+3/4,x,-z+3/4'
'y+1/2,x,z+1/2'
'-x+3/4,z,-y+3/4'
'-x+3/4,-z+1/4,y+1/2'
'x+1/2,-z+1/4,-y+3/4'
'x+1/2,z,y+1/2'
'z+1/2,-x+1/4,-y+3/4'
'-z+3/4,-x+1/4,y+1/2'
'-z+3/4,x,-y+3/4'
'z+1/2,x,y+1/2'
'-y+3/4,z,-x+3/4'
'y+1/2,-z+1/4,-x+3/4'
'-y+3/4,-z+1/4,x+1/2'
'y+1/2,z,x+1/2'
'-x+3/4,-y+1/4,z+1/2'
'-x+3/4,y,-z+3/4'
'x+1/2,-y+1/4,-z+3/4'
'x+1/2,y,z+1/2'
'-z+1/2,y+1/4,x+3/4'
'z+1/4,-y+1/2,x+3/4'
'z+1/4,y+1/4,-x'
'-z+1/2,-y+1/2,-x'
'y+1/4,x+1/4,-z'
'-y+1/2,x+1/4,z+3/4'
'y+1/4,-x+1/2,z+3/4'
'-y+1/2,-x+1/2,-z'
'x+1/4,-z+1/2,y+3/4'
'x+1/4,z+1/4,-y'
'-x+1/2,z+1/4,y+3/4'
'-x+1/2,-z+1/2,-y'
'-z+1/2,x+1/4,y+3/4'
'z+1/4,x+1/4,-y'
'z+1/4,-x+1/2,y+3/4'
'-z+1/2,-x+1/2,-y'
'y+1/4,-z+1/2,x+3/4'
'-y+1/2,z+1/4,x+3/4'
'y+1/4,z+1/4,-x'
'-y+1/2,-z+1/2,-x'
'x+1/4,y+1/4,-z'
'x+1/4,-y+1/2,z+3/4'
'-x+1/2,y+1/4,z+3/4'
'-x+1/2,-y+1/2,-z'
'z+1/2,-y+3/4,-x+1/4'
'-z+3/4,y+1/2,-x+1/4'
'-z+3/4,-y+3/4,x'
'z+1/2,y+1/2,x'
'-y+3/4,-x+3/4,z'
'y+1/2,-x+3/4,-z+1/4'
'-y+3/4,x+1/2,-z+1/4'
'y+1/2,x+1/2,z'
'-x+3/4,z+1/2,-y+1/4'
'-x+3/4,-z+3/4,y'
'x+1/2,-z+3/4,-y+1/4'
'x+1/2,z+1/2,y'
'z+1/2,-x+3/4,-y+1/4'
'-z+3/4,-x+3/4,y'
'-z+3/4,x+1/2,-y+1/4'
'z+1/2,x+1/2,y'
'-y+3/4,z+1/2,-x+1/4'
'y+1/2,-z+3/4,-x+1/4'
'-y+3/4,-z+3/4,x'
'y+1/2,z+1/2,x'
'-x+3/4,-y+3/4,z'
'-x+3/4,y+1/2,-z+1/4'
'x+1/2,-y+3/4,-z+1/4'
'x+1/2,y+1/2,z'
loop_
_atom_site_label
_atom_site_symmetry_multiplicity
_atom_site_Wyckoff_symbol
_atom_site_fract_x
_atom_site_fract_y
_atom_site_fract_z
Zn  8 a   0.125     0.125     0.125
V  16 d   0.5       0.5       0.5
O  32 e   0.2604(2) 0.2604(2) 0.2604(2)
