#------------------------------------------------------------------------------
#$Date: 2013-05-05 14:21:46 +0000 (Sun, 05 May 2013) $
#$Revision: 85285 $
#$URL: file:///home/coder/svn-repositories/cod/cif/9/00/08/9000807.cif $
#------------------------------------------------------------------------------
#
# This file is available in the Crystallography Open Database (COD),
# http://www.crystallography.net/. The original data for this entry
# were provided the American Mineralogist Crystal Structure Database,
# http://rruff.geo.arizona.edu/AMS/amcsd.php
#
# The file may be used within the scientific community so long as
# proper attribution is given to the journal article from which the
# data were obtained.
#
data_9000807
loop_
_publ_author_name
'Levien, L.'
'Prewitt, C. T.'
_publ_section_title
;
 High-pressure crystal structure and compressibility of coesite
 P = 46.0 kbar
;
_journal_name_full               'American Mineralogist'
_journal_page_first              324
_journal_page_last               333
_journal_volume                  66
_journal_year                    1981
_chemical_formula_sum            'O2 Si'
_chemical_name_mineral           Coesite
_space_group_IT_number           15
_symmetry_space_group_name_Hall  '-C 2yc'
_symmetry_space_group_name_H-M   'C 1 2/c 1'
_cell_angle_alpha                90
_cell_angle_beta                 120.7
_cell_angle_gamma                90
_cell_length_a                   7.0042
_cell_length_b                   12.246
_cell_length_c                   7.1177
_cell_volume                     524.948
_diffrn_ambient_pressure         4.6e+06
_exptl_crystal_density_diffrn    3.041
_[local]_cod_chemical_formula_sum_orig 'Si O2'
_cod_database_code               9000807
loop_
_symmetry_equiv_pos_as_xyz
x,y,z
1/2+x,1/2+y,z
x,-y,1/2+z
1/2+x,1/2-y,1/2+z
-x,y,1/2-z
1/2-x,1/2+y,1/2-z
-x,-y,-z
1/2-x,1/2-y,-z
loop_
_atom_site_label
_atom_site_fract_x
_atom_site_fract_y
_atom_site_fract_z
_atom_site_U_iso_or_equiv
Si1 0.13700 0.10980 0.07040 0.00481
Si2 0.50850 0.15760 0.54410 0.00443
O1 0.00000 0.00000 0.00000 0.01305
O2 0.50000 0.10910 0.75000 0.00811
O3 0.25430 0.12910 0.92840 0.00722
O4 0.31790 0.10060 0.32510 0.00937
O5 0.02640 0.21290 0.47190 0.01013
