data_nolabel
loop_
_publ_author_name
'Kwei, G. H.'
'Lawson, A. C.'
'Billinge, S. J. L.'
'Cheong, S. W.'
_publ_section_title
;
 Structures of the ferroelectric phases of barium titanate
 Note: T = 300 K
;
_journal_name_full               'Journal of Physical Chemistry'
_journal_volume                  97
_journal_page_first              2368
_journal_year                    1993
_journal_paper_doi 10.1021/j100112a043
_chemical_formula_sum            'BaTiO3'
_symmetry_space_group_name_H-M   'P4/mmm'
_cell_angle_alpha                90
_cell_angle_beta                 90
_cell_angle_gamma                90
_cell_length_a                   3.99095(29)
_cell_length_b                   3.99095(29)
_cell_length_c                   4.0352(3)
_diffrn_ambient_temperature      300
loop_
_atom_site_label
_atom_site_fract_x
_atom_site_fract_y
_atom_site_fract_z
_atom_site_Wyckoff_symbol
Ba   0    0    0         1a
Ti   .5   .5   .5224(6)  1b
O1   .5   .5  -.0244(4)  1b
O2   .5   0    .4895(5)  2c
